/*--------------------------------*- C++ -*----------------------------------*\
| =========                 |                                                 |
| \\      /  F ield         | OpenFOAM: The Open Source CFD Toolbox           |
|  \\    /   O peration     | Version:  2.2.x                                 |
|   \\  /    A nd           | Web:      www.OpenFOAM.org                      |
|    \\/     M anipulation  |                                                 |
\*---------------------------------------------------------------------------*/
FoamFile
{
    version     2.0;
    format      ascii;
    class       volVectorField;
    location    "0";
    object      U;
}
// * * * * * * * * * * * * * * * * * * * * * * * * * * * * * * * * * * * * * //

dimensions      [0 1 -1 0 0 0 0];

internalField   nonuniform List<vector> 
60000
(
(0.00159118 0 -7.737e-05)
(0.00175429 0 -0.000286319)
(0.00154262 0 -0.000335268)
(0.00152631 0 -0.000427734)
(0.00164964 0 -0.00061334)
(0.00159722 0 -0.000616727)
(0.00154339 0 -0.000575592)
(0.00166123 0 -0.000663108)
(0.00163162 0 -0.000567937)
(0.00150438 0 -0.000377322)
(0.00158803 0 -0.000313336)
(0.0016165 0 -0.000179642)
(0.00154864 0 -1.84906e-05)
(0.00155203 0 0.000125888)
(0.00163897 0 0.000301343)
(0.00165886 0 0.000452604)
(0.00160357 0 0.000522123)
(0.00159683 0 0.000589153)
(0.00160812 0 0.000636528)
(0.0016353 0 0.000660924)
(0.00165224 0 0.000633384)
(0.00158822 0 0.000499148)
(0.0016801 0 0.00045064)
(0.00158024 0 0.000259212)
(0.00161252 0 0.000120508)
(0.0015825 0 -3.73526e-05)
(0.00162066 0 -0.000198876)
(0.00171238 0 -0.000394045)
(0.00161379 0 -0.000466623)
(0.00152554 0 -0.000486088)
(0.00168035 0 -0.000686966)
(0.00162775 0 -0.000659761)
(0.00157375 0 -0.000590139)
(0.00160989 0 -0.000569513)
(0.00168915 0 -0.000537558)
(0.00167289 0 -0.000393779)
(0.00152345 0 -0.000187768)
(0.00166608 0 -6.64932e-05)
(0.00163438 0 0.000101804)
(0.00170582 0 0.000288566)
(0.0048002 0 -0.000224029)
(0.00500988 0 -0.000734102)
(0.00495601 0 -0.00114205)
(0.00477959 0 -0.00136535)
(0.00530601 0 -0.00207629)
(0.00515902 0 -0.00211733)
(0.00480248 0 -0.00180598)
(0.00502252 0 -0.00193856)
(0.00491462 0 -0.00164224)
(0.00489425 0 -0.00133298)
(0.00462795 0 -0.000825584)
(0.0048494 0 -0.000513541)
(0.0047532 0 -5.5943e-05)
(0.0049858 0 0.000428338)
(0.00509203 0 0.000940891)
(0.00515893 0 0.0014163)
(0.00531932 0 0.00190531)
(0.00477483 0 0.00166719)
(0.0049709 0 0.00196302)
(0.00479511 0 0.00178327)
(0.00477584 0 0.00164931)
(0.00459165 0 0.00128581)
(0.00496174 0 0.00124462)
(0.00518239 0 0.000924188)
(0.00490537 0 0.000356974)
(0.00496992 0 -0.000119894)
(0.00459678 0 -0.000488618)
(0.00502029 0 -0.00107223)
(0.00527199 0 -0.00164217)
(0.00468393 0 -0.00147119)
(0.00518559 0 -0.00211084)
(0.00534129 0 -0.0023419)
(0.00466365 0 -0.0016257)
(0.00476883 0 -0.00157382)
(0.00487444 0 -0.00140162)
(0.00511601 0 -0.0011841)
(0.00507371 0 -0.000700849)
(0.00486949 0 -0.000178591)
(0.00514969 0 0.000328772)
(0.00471536 0 0.000673785)
(0.00847145 0 -0.000403263)
(0.00850438 0 -0.00119686)
(0.00839857 0 -0.00185158)
(0.00842055 0 -0.00244722)
(0.00872015 0 -0.00314683)
(0.00851754 0 -0.00322863)
(0.00867099 0 -0.00344445)
(0.00853247 0 -0.00316768)
(0.00875406 0 -0.00302114)
(0.00863424 0 -0.00239491)
(0.00875591 0 -0.00178382)
(0.00876435 0 -0.000980512)
(0.00792461 0 -8.61214e-05)
(0.00878589 0 0.000766832)
(0.00901101 0 0.00169999)
(0.00901312 0 0.00248179)
(0.00829093 0 0.00252177)
(0.00853535 0 0.00310275)
(0.00900193 0 0.00375354)
(0.00820579 0 0.00295806)
(0.00898253 0 0.00347831)
(0.00853081 0 0.00266126)
(0.00905935 0 0.00242691)
(0.00881058 0 0.00151724)
(0.00854916 0 0.000621885)
(0.00848916 0 -0.000198479)
(0.00884696 0 -0.0011036)
(0.00847414 0 -0.00172334)
(0.00850614 0 -0.00237252)
(0.00872905 0 -0.0030512)
(0.00844323 0 -0.00310886)
(0.00894652 0 -0.00372082)
(0.00794614 0 -0.00265655)
(0.00843265 0 -0.00284848)
(0.00823197 0 -0.002247)
(0.00866499 0 -0.00192365)
(0.00944387 0 -0.00142222)
(0.00934866 0 -0.000392571)
(0.00869585 0 0.000530496)
(0.00836513 0 0.00123085)
(0.0133552 0 -0.000705182)
(0.012713 0 -0.00183994)
(0.0117548 0 -0.00238677)
(0.0120118 0 -0.003328)
(0.0119781 0 -0.00388576)
(0.0123491 0 -0.00459023)
(0.0121979 0 -0.00453114)
(0.0131764 0 -0.00526842)
(0.0123065 0 -0.00397371)
(0.0128063 0 -0.00360764)
(0.0128328 0 -0.00260859)
(0.0126019 0 -0.00136708)
(0.0125568 0 -0.000155579)
(0.0120075 0 0.000935839)
(0.0123948 0 0.00212482)
(0.0123242 0 0.00305442)
(0.0125379 0 0.00400132)
(0.0123375 0 0.00437694)
(0.0129519 0 0.00525182)
(0.012947 0 0.00522808)
(0.0134323 0 0.00533275)
(0.0118213 0 0.0033476)
(0.0130799 0 0.00342559)
(0.0133738 0 0.00241218)
(0.0134201 0 0.00107433)
(0.0119901 0 -0.000262992)
(0.0128496 0 -0.00157874)
(0.0124763 0 -0.00254937)
(0.0115623 0 -0.00282109)
(0.0132618 0 -0.00486614)
(0.0122901 0 -0.00446453)
(0.0132292 0 -0.00555792)
(0.0126165 0 -0.00481913)
(0.0123435 0 -0.00415098)
(0.0120405 0 -0.00326668)
(0.0124254 0 -0.00266099)
(0.0122262 0 -0.00154016)
(0.0120037 0 -0.00041384)
(0.0122335 0 0.000698298)
(0.0131909 0 0.00216076)
(0.0167487 0 -0.000794877)
(0.0163529 0 -0.00219259)
(0.016805 0 -0.00376521)
(0.017698 0 -0.00561983)
(0.017339 0 -0.00629204)
(0.0165073 0 -0.00604128)
(0.0168452 0 -0.0064954)
(0.0171766 0 -0.00653577)
(0.0167979 0 -0.00552403)
(0.0175862 0 -0.0050803)
(0.0167238 0 -0.00322285)
(0.0161197 0 -0.00160142)
(0.0166364 0 -0.000200207)
(0.0167262 0 0.00137439)
(0.0174326 0 0.00318181)
(0.0168894 0 0.00428954)
(0.0170984 0 0.0055452)
(0.0179615 0 0.00712507)
(0.016802 0 0.00642057)
(0.0179885 0 0.00756263)
(0.0174987 0 0.00661987)
(0.0163567 0 0.00483972)
(0.0165355 0 0.00392232)
(0.0159108 0 0.0023587)
(0.0169644 0 0.00123739)
(0.0158813 0 -0.000336877)
(0.0167066 0 -0.00193899)
(0.016253 0 -0.00313369)
(0.016656 0 -0.00456115)
(0.0163975 0 -0.00527291)
(0.0173347 0 -0.00674179)
(0.0173885 0 -0.00704011)
(0.0168774 0 -0.00635998)
(0.0166235 0 -0.00557185)
(0.0167297 0 -0.00476422)
(0.0163324 0 -0.00334962)
(0.0163103 0 -0.00201521)
(0.0176938 0 -0.000699726)
(0.0167648 0 0.0009811)
(0.0164863 0 0.00240565)
(0.021918 0 -0.00107168)
(0.0208259 0 -0.00275423)
(0.0227044 0 -0.00548693)
(0.0201973 0 -0.00530107)
(0.020306 0 -0.00633442)
(0.0230284 0 -0.00953985)
(0.0208742 0 -0.00759441)
(0.0227352 0 -0.00903972)
(0.0220546 0 -0.00750733)
(0.0219742 0 -0.00610251)
(0.0208825 0 -0.00384341)
(0.0201631 0 -0.00191005)
(0.0214143 0 -0.000258818)
(0.0222835 0 0.00193752)
(0.0203017 0 0.00315934)
(0.0217623 0 0.00555883)
(0.021317 0 0.00660299)
(0.0197247 0 0.00605133)
(0.0204374 0 0.00712617)
(0.0216296 0 0.00827131)
(0.0195737 0 0.00584445)
(0.0218425 0 0.00688634)
(0.0202841 0 0.00444285)
(0.0206782 0 0.00313392)
(0.0208507 0 0.00141658)
(0.0204637 0 -0.000437033)
(0.0215293 0 -0.00251395)
(0.0205363 0 -0.00385018)
(0.0220358 0 -0.00632341)
(0.0203148 0 -0.00613404)
(0.0211126 0 -0.00756304)
(0.021066 0 -0.00779163)
(0.0210497 0 -0.00756922)
(0.0224943 0 -0.00816752)
(0.0205718 0 -0.00544652)
(0.0216513 0 -0.00467931)
(0.0216429 0 -0.00282272)
(0.0214039 0 -0.000774427)
(0.0200076 0 0.00103007)
(0.0217159 0 0.00330227)
(0.0262184 0 -0.00120752)
(0.0268913 0 -0.00379149)
(0.0261408 0 -0.00562557)
(0.0263659 0 -0.00755538)
(0.0261145 0 -0.00866547)
(0.0256685 0 -0.0089995)
(0.0264388 0 -0.00994039)
(0.0259603 0 -0.00906698)
(0.024819 0 -0.00714078)
(0.0253455 0 -0.00622425)
(0.0269159 0 -0.00526416)
(0.0231839 0 -0.00186182)
(0.0246621 0 -0.000260438)
(0.0258808 0 0.00202311)
(0.0248945 0 0.00378125)
(0.0244487 0 0.00522742)
(0.0269275 0 0.00856868)
(0.0249528 0 0.00793793)
(0.0269581 0 0.0104029)
(0.0249076 0 0.00835144)
(0.0255823 0 0.00842638)
(0.0261732 0 0.00779098)
(0.0276123 0 0.00703696)
(0.0255647 0 0.00384293)
(0.0254498 0 0.00167657)
(0.0261841 0 -0.000589063)
(0.0277377 0 -0.00342387)
(0.0265895 0 -0.00535104)
(0.0256906 0 -0.00665177)
(0.0252885 0 -0.00766805)
(0.0249021 0 -0.0081305)
(0.0262467 0 -0.00975913)
(0.0262046 0 -0.0094597)
(0.024553 0 -0.00716692)
(0.0250589 0 -0.00640116)
(0.0246242 0 -0.00455546)
(0.0258525 0 -0.00316179)
(0.0260643 0 -0.000912757)
(0.0264407 0 0.00152039)
(0.0270057 0 0.00411478)
(0.0283298 0 -0.00103713)
(0.0320084 0 -0.0043775)
(0.0307271 0 -0.0062554)
(0.0314145 0 -0.00873277)
(0.030967 0 -0.00987586)
(0.0315292 0 -0.0112964)
(0.0288257 0 -0.00884154)
(0.03003 0 -0.00961113)
(0.0312917 0 -0.00966664)
(0.0310987 0 -0.00779538)
(0.0286515 0 -0.00438243)
(0.0297739 0 -0.00271144)
(0.0288966 0 -0.000283722)
(0.0307817 0 0.00232298)
(0.0312526 0 0.00505581)
(0.0322403 0 0.00801868)
(0.0314739 0 0.0094238)
(0.0291999 0 0.00863516)
(0.0308388 0 0.0107819)
(0.0302535 0 0.010168)
(0.0291102 0 0.00845537)
(0.0306592 0 0.00858038)
(0.0274067 0 0.00471275)
(0.0303318 0 0.0043761)
(0.0301801 0 0.0019053)
(0.0299912 0 -0.000607788)
(0.0298165 0 -0.00299567)
(0.0295127 0 -0.00505001)
(0.031047 0 -0.00798418)
(0.0319217 0 -0.0103756)
(0.0283335 0 -0.0080685)
(0.0301544 0 -0.0101671)
(0.0317406 0 -0.0114285)
(0.0306129 0 -0.00942164)
(0.0305331 0 -0.00786414)
(0.0293285 0 -0.00522493)
(0.0311605 0 -0.00376811)
(0.0300946 0 -0.000963214)
(0.0324842 0 0.00190627)
(0.0306696 0 0.00417985)
(0.0336431 0 -0.00122084)
(0.0350308 0 -0.00408908)
(0.0364498 0 -0.00735464)
(0.0375733 0 -0.0105064)
(0.034776 0 -0.0098658)
(0.0319771 0 -0.00802041)
(0.036315 0 -0.0124762)
(0.0368862 0 -0.0124917)
(0.0361381 0 -0.0105374)
(0.0349985 0 -0.00785082)
(0.0343646 0 -0.00533039)
(0.0352585 0 -0.0031685)
(0.0360064 0 -0.000387471)
(0.0339011 0 0.00217336)
(0.0335167 0 0.00436279)
(0.0358089 0 0.00785515)
(0.0368243 0 0.0106698)
(0.0344027 0 0.00991896)
(0.0346909 0 0.0108133)
(0.0359221 0 0.0119835)
(0.0352511 0 0.010586)
(0.0352779 0 0.0092172)
(0.0338448 0 0.00635645)
(0.0370681 0 0.00559944)
(0.0351173 0 0.00211233)
(0.0343935 0 -0.000642845)
(0.0356768 0 -0.00361197)
(0.0368451 0 -0.00689522)
(0.0342762 0 -0.00756084)
(0.0353955 0 -0.0100766)
(0.0339935 0 -0.00982874)
(0.0372016 0 -0.0133668)
(0.035142 0 -0.0110243)
(0.0370153 0 -0.0116927)
(0.0363628 0 -0.00935038)
(0.0355962 0 -0.00658133)
(0.0351795 0 -0.00383462)
(0.0337694 0 -0.000949474)
(0.0344724 0 0.00162874)
(0.0344809 0 0.00417642)
(0.0424363 0 -0.00178976)
(0.042495 0 -0.00528028)
(0.0400849 0 -0.00704595)
(0.0373714 0 -0.0071911)
(0.0395365 0 -0.0103934)
(0.0405512 0 -0.0122994)
(0.0404621 0 -0.0124541)
(0.0415401 0 -0.0129515)
(0.0399903 0 -0.0102683)
(0.0398972 0 -0.00835852)
(0.0417753 0 -0.00695363)
(0.0390108 0 -0.00305398)
(0.0403992 0 -0.000394519)
(0.0403284 0 0.00265541)
(0.0398664 0 0.00533384)
(0.0398731 0 0.00778686)
(0.037873 0 0.00812875)
(0.038329 0 0.00969335)
(0.0399749 0 0.0119121)
(0.0368247 0 0.00877509)
(0.0422981 0 0.013228)
(0.0415422 0 0.010888)
(0.0423074 0 0.00905195)
(0.040831 0 0.00542893)
(0.0422494 0 0.00266148)
(0.0410482 0 -0.000792545)
(0.0393854 0 -0.0034728)
(0.0400687 0 -0.00639836)
(0.0384164 0 -0.00753997)
(0.0380633 0 -0.0087806)
(0.0399137 0 -0.0115039)
(0.0413005 0 -0.013297)
(0.0397737 0 -0.0114706)
(0.0389262 0 -0.00970638)
(0.0401955 0 -0.00910142)
(0.0377 0 -0.00543663)
(0.0370855 0 -0.00307723)
(0.0391947 0 -0.00106815)
(0.0405947 0 0.00192459)
(0.0420302 0 0.0054883)
(0.0449472 0 -0.00153957)
(0.0435258 0 -0.00401)
(0.0463247 0 -0.00802558)
(0.0449139 0 -0.00946508)
(0.044406 0 -0.0106836)
(0.0439238 0 -0.0111611)
(0.0443013 0 -0.0117557)
(0.0456639 0 -0.0125526)
(0.0449008 0 -0.0105791)
(0.044421 0 -0.0083443)
(0.0442763 0 -0.00593037)
(0.044922 0 -0.00342936)
(0.0433667 0 -0.000344791)
(0.0443602 0 0.00254601)
(0.0454399 0 0.00579224)
(0.0443924 0 0.00777061)
(0.0461212 0 0.0111447)
(0.0421953 0 0.00906373)
(0.0448715 0 0.0122593)
(0.0433666 0 0.010737)
(0.0458998 0 0.0123626)
(0.0455168 0 0.0104336)
(0.0478166 0 0.00965777)
(0.0447448 0 0.00516444)
(0.0461955 0 0.00255061)
(0.0449108 0 -0.000751488)
(0.0461352 0 -0.00413909)
(0.0444918 0 -0.00633468)
(0.0452191 0 -0.00915766)
(0.0458796 0 -0.0116047)
(0.041669 0 -0.00883549)
(0.0435644 0 -0.0110359)
(0.0448966 0 -0.012029)
(0.0457767 0 -0.0117347)
(0.0451895 0 -0.00943404)
(0.0452642 0 -0.00711025)
(0.0450502 0 -0.00422183)
(0.0443656 0 -0.00112736)
(0.0459637 0 0.00204952)
(0.0440365 0 0.00450318)
(0.0498638 0 -0.00153601)
(0.0500828 0 -0.00459263)
(0.0483546 0 -0.00634098)
(0.0488086 0 -0.00866803)
(0.0504953 0 -0.0117043)
(0.0490163 0 -0.0113039)
(0.0482815 0 -0.0107994)
(0.0485343 0 -0.0105835)
(0.0492092 0 -0.0100384)
(0.0501123 0 -0.00886342)
(0.0493078 0 -0.00597342)
(0.0492693 0 -0.00326508)
(0.0496877 0 -0.000388168)
(0.0495183 0 0.00259137)
(0.0491906 0 0.00526008)
(0.0509393 0 0.00881118)
(0.0487369 0 0.00924758)
(0.0483072 0 0.0101468)
(0.0499491 0 0.0123894)
(0.0468247 0 0.00927604)
(0.0498689 0 0.0114661)
(0.0493438 0 0.00954158)
(0.0494713 0 0.00759159)
(0.0492952 0 0.00499865)
(0.0474554 0 0.00186747)
(0.048356 0 -0.000661114)
(0.0497258 0 -0.00372975)
(0.049312 0 -0.00626881)
(0.0491396 0 -0.00842341)
(0.0479758 0 -0.00914538)
(0.0484618 0 -0.0106029)
(0.0479379 0 -0.0104686)
(0.0475055 0 -0.00977359)
(0.0502313 0 -0.0113029)
(0.0482378 0 -0.00803074)
(0.0480382 0 -0.00590675)
(0.049467 0 -0.00404489)
(0.0476581 0 -0.000971159)
(0.0491045 0 0.00177613)
(0.0488171 0 0.00443915)
(0.0538552 0 -0.00136601)
(0.0530244 0 -0.00371352)
(0.0522239 0 -0.00547209)
(0.0530342 0 -0.00779772)
(0.0528891 0 -0.00904554)
(0.0508123 0 -0.00782899)
(0.0546245 0 -0.0117602)
(0.0527251 0 -0.00946179)
(0.0518487 0 -0.00771862)
(0.0532254 0 -0.00729012)
(0.0526992 0 -0.00498097)
(0.0522885 0 -0.00261863)
(0.0535911 0 -0.000341815)
(0.0536535 0 0.0023271)
(0.0530662 0 0.00459313)
(0.0543419 0 0.00753068)
(0.0524287 0 0.00787854)
(0.0539874 0 0.0104319)
(0.0517145 0 0.00883338)
(0.0518808 0 0.00896477)
(0.0513549 0 0.00789742)
(0.0545061 0 0.00937346)
(0.0507514 0 0.00502182)
(0.0557283 0 0.00544335)
(0.0546883 0 0.00221217)
(0.0531567 0 -0.000626637)
(0.0523333 0 -0.00289425)
(0.051175 0 -0.00442469)
(0.0536679 0 -0.00781824)
(0.0530605 0 -0.00889645)
(0.0536899 0 -0.0104642)
(0.0519431 0 -0.00911231)
(0.0532022 0 -0.0100859)
(0.0534651 0 -0.00942134)
(0.0528548 0 -0.00747152)
(0.0534571 0 -0.00593215)
(0.0536138 0 -0.00363449)
(0.0525394 0 -0.000924692)
(0.0521333 0 0.00142099)
(0.0540054 0 0.00436745)
(0.0566567 0 -0.000993839)
(0.0575826 0 -0.00325507)
(0.0560531 0 -0.00431824)
(0.0579319 0 -0.00709347)
(0.0584869 0 -0.00884165)
(0.0564179 0 -0.00761458)
(0.0579929 0 -0.0093253)
(0.0558307 0 -0.00688031)
(0.0575805 0 -0.00763848)
(0.0566931 0 -0.00564826)
(0.057202 0 -0.0043182)
(0.0563078 0 -0.0021224)
(0.0585094 0 -0.000313179)
(0.0571205 0 0.00182343)
(0.0567025 0 0.00361781)
(0.0571129 0 0.00554534)
(0.0578618 0 0.00755839)
(0.0572327 0 0.0080353)
(0.0563458 0 0.00765547)
(0.0548803 0 0.00618845)
(0.0581587 0 0.00879485)
(0.056445 0 0.00627312)
(0.0561682 0 0.00476473)
(0.0560728 0 0.00314366)
(0.0580021 0 0.0017465)
(0.0579011 0 -0.000561477)
(0.0564351 0 -0.00237328)
(0.0574444 0 -0.00465749)
(0.0568105 0 -0.00589598)
(0.0568005 0 -0.00709581)
(0.0562817 0 -0.00736953)
(0.0569928 0 -0.00834233)
(0.0569765 0 -0.00810533)
(0.0571586 0 -0.00754559)
(0.0567545 0 -0.0060466)
(0.0569112 0 -0.00461754)
(0.0574349 0 -0.00296348)
(0.0567629 0 -0.000773253)
(0.0566779 0 0.00122684)
(0.0557308 0 0.00277576)
(0.0601732 0 -0.000650918)
(0.0609314 0 -0.00218679)
(0.0607776 0 -0.00340586)
(0.0609573 0 -0.00460711)
(0.0613353 0 -0.00575818)
(0.0605559 0 -0.00551084)
(0.0610243 0 -0.00608385)
(0.0612006 0 -0.00599438)
(0.0611485 0 -0.00531702)
(0.0607911 0 -0.00411285)
(0.0610592 0 -0.00309305)
(0.061058 0 -0.00169581)
(0.0607362 0 -0.000184604)
(0.0614253 0 0.0013967)
(0.0609836 0 0.00271704)
(0.0614057 0 0.00423866)
(0.06066 0 0.00470408)
(0.0611208 0 0.00579233)
(0.0611301 0 0.00615782)
(0.0612467 0 0.0062501)
(0.0612933 0 0.00588537)
(0.0608632 0 0.00476944)
(0.0604072 0 0.00346846)
(0.0612094 0 0.00265406)
(0.0609048 0 0.00111614)
(0.0613788 0 -0.000391261)
(0.06098 0 -0.00184196)
(0.0605618 0 -0.00298352)
(0.0607191 0 -0.00418044)
(0.0602888 0 -0.00466591)
(0.0611938 0 -0.00603811)
(0.0613043 0 -0.00636708)
(0.060588 0 -0.00550675)
(0.0615452 0 -0.00585958)
(0.0599431 0 -0.00374266)
(0.0598502 0 -0.00275288)
(0.0612546 0 -0.00213227)
(0.0612644 0 -0.00060297)
(0.060349 0 0.000828039)
(0.0600151 0 0.001992)
(0.0658223 0 -0.000508979)
(0.0650381 0 -0.00121209)
(0.066247 0 -0.00263549)
(0.0654456 0 -0.00285176)
(0.0652643 0 -0.00319367)
(0.0663467 0 -0.00452796)
(0.0669478 0 -0.00521288)
(0.0657555 0 -0.00386166)
(0.0655329 0 -0.00326483)
(0.0653339 0 -0.00253971)
(0.0662676 0 -0.00229467)
(0.0657731 0 -0.00112252)
(0.065807 0 -0.000129983)
(0.0659184 0 0.000903638)
(0.0655763 0 0.00173277)
(0.0647737 0 0.00200675)
(0.0658005 0 0.00335062)
(0.0661653 0 0.00415979)
(0.0653712 0 0.00363294)
(0.0660707 0 0.00430683)
(0.0653211 0 0.00333779)
(0.0658565 0 0.00332643)
(0.0654167 0 0.00234261)
(0.0650361 0 0.0014056)
(0.0663632 0 0.000866992)
(0.0658759 0 -0.000252393)
(0.0650673 0 -0.00102163)
(0.064884 0 -0.00168036)
(0.0649904 0 -0.00236723)
(0.0649521 0 -0.00281935)
(0.0648911 0 -0.00306701)
(0.0661061 0 -0.00438313)
(0.0663483 0 -0.00450066)
(0.0665091 0 -0.00424237)
(0.0659858 0 -0.00318054)
(0.0651777 0 -0.00193532)
(0.0657499 0 -0.00136009)
(0.0648937 0 -0.000303125)
(0.0652883 0 0.00054576)
(0.0665515 0 0.00188865)
(0.0715477 0 -0.000312823)
(0.0710697 0 -0.0007464)
(0.0713934 0 -0.00137985)
(0.0714027 0 -0.00181842)
(0.0711221 0 -0.00188915)
(0.071288 0 -0.00221758)
(0.0712576 0 -0.00223124)
(0.0710908 0 -0.00197892)
(0.071692 0 -0.00228001)
(0.0712875 0 -0.00158878)
(0.0712973 0 -0.00114789)
(0.0710001 0 -0.000547848)
(0.0714735 0 -7.78475e-05)
(0.0715557 0 0.000544505)
(0.07161 0 0.00116007)
(0.0713743 0 0.00153952)
(0.0713136 0 0.00187964)
(0.0713128 0 0.0021428)
(0.0712327 0 0.0021957)
(0.0711153 0 0.00207242)
(0.0710318 0 0.00186061)
(0.0710664 0 0.00164391)
(0.0713345 0 0.00146248)
(0.0711246 0 0.000889124)
(0.0708969 0 0.00035063)
(0.0712417 0 -0.000134713)
(0.0714138 0 -0.00072766)
(0.0711483 0 -0.00112593)
(0.0714259 0 -0.00173396)
(0.071316 0 -0.00199453)
(0.0710556 0 -0.00196178)
(0.071329 0 -0.00230411)
(0.0714251 0 -0.00233579)
(0.071416 0 -0.00212034)
(0.0714742 0 -0.00182616)
(0.0718438 0 -0.00157314)
(0.0715258 0 -0.00084352)
(0.0711354 0 -0.00020128)
(0.0710995 0 0.000317259)
(0.0712834 0 0.000884238)
(0.0781274 0 -0.000156664)
(0.0779311 0 -0.000389378)
(0.0779743 0 -0.000647276)
(0.0779628 0 -0.000840881)
(0.0779215 0 -0.000952582)
(0.0778861 0 -0.00100258)
(0.0778694 0 -0.00100579)
(0.0778098 0 -0.000906782)
(0.077841 0 -0.0008375)
(0.0781008 0 -0.000867861)
(0.0781124 0 -0.000630174)
(0.0777443 0 -0.000244474)
(0.077944 0 -3.43755e-05)
(0.0779596 0 0.00023601)
(0.0778944 0 0.000463343)
(0.0781819 0 0.000862879)
(0.077871 0 0.000828028)
(0.0778736 0 0.000946717)
(0.0779208 0 0.00105152)
(0.077888 0 0.00101545)
(0.0781184 0 0.00116081)
(0.0781455 0 0.00102999)
(0.0777948 0 0.000590645)
(0.0780656 0 0.000508237)
(0.0779237 0 0.000198253)
(0.0780443 0 -7.16924e-05)
(0.077936 0 -0.000326864)
(0.0780087 0 -0.00060663)
(0.0780014 0 -0.000821823)
(0.0780453 0 -0.00102819)
(0.077962 0 -0.00106002)
(0.0779443 0 -0.00108104)
(0.0778698 0 -0.000980459)
(0.077908 0 -0.000926922)
(0.077982 0 -0.000834261)
(0.0778442 0 -0.000548742)
(0.0781612 0 -0.000437441)
(0.0779295 0 -0.000101613)
(0.0779767 0 0.000170067)
(0.0780979 0 0.000482757)
(0.0855948 0 -4.40484e-05)
(0.0856979 0 -0.000166706)
(0.0856782 0 -0.000255038)
(0.0857343 0 -0.000377351)
(0.0857456 0 -0.000454098)
(0.0856649 0 -0.000415886)
(0.0856142 0 -0.000373865)
(0.0857313 0 -0.000469227)
(0.0856875 0 -0.000382481)
(0.0856125 0 -0.000261509)
(0.0856174 0 -0.000190602)
(0.0856399 0 -0.000110703)
(0.0855864 0 -1.10254e-05)
(0.0856738 0 9.32938e-05)
(0.0856191 0 0.000170273)
(0.0856426 0 0.000263729)
(0.0856325 0 0.000322189)
(0.0856049 0 0.00034182)
(0.0856837 0 0.000440489)
(0.0856306 0 0.00038677)
(0.0856068 0 0.000339691)
(0.0856952 0 0.000365561)
(0.0856569 0 0.000263747)
(0.0856373 0 0.00016801)
(0.0856367 0 7.41165e-05)
(0.0856686 0 -2.60058e-05)
(0.0855768 0 -0.000102706)
(0.0856245 0 -0.000203692)
(0.0857008 0 -0.0003324)
(0.0856566 0 -0.000362355)
(0.0855927 0 -0.000340553)
(0.0857202 0 -0.000479286)
(0.0856641 0 -0.000412487)
(0.0855894 0 -0.000310126)
(0.0856272 0 -0.000288782)
(0.0856465 0 -0.000227035)
(0.0856116 0 -0.000125412)
(0.0856038 0 -3.46745e-05)
(0.0856089 0 5.63688e-05)
(0.0856216 0 0.000149351)
(0.0942946 0 -1.81076e-05)
(0.0942744 0 -4.59006e-05)
(0.0942672 0 -6.91901e-05)
(0.094288 0 -0.000106614)
(0.0942685 0 -0.000108039)
(0.0942742 0 -0.000123104)
(0.0942806 0 -0.000131937)
(0.0942748 0 -0.000120887)
(0.0942784 0 -0.000111121)
(0.094261 0 -7.90914e-05)
(0.0942876 0 -7.02027e-05)
(0.0942669 0 -3.28012e-05)
(0.094292 0 -4.55981e-06)
(0.094274 0 2.70205e-05)
(0.0942936 0 6.50887e-05)
(0.0942702 0 7.97841e-05)
(0.0942696 0 9.94649e-05)
(0.0942754 0 0.000118874)
(0.09428 0 0.000130716)
(0.0942576 0 0.000108172)
(0.0942822 0 0.000123704)
(0.0942673 0 9.55713e-05)
(0.0942729 0 7.87757e-05)
(0.0942926 0 6.09208e-05)
(0.0942598 0 2.08316e-05)
(0.0942764 0 -7.76734e-06)
(0.0942659 0 -3.57794e-05)
(0.0942653 0 -6.19067e-05)
(0.0942963 0 -0.000106654)
(0.0942805 0 -0.000114867)
(0.0942623 0 -0.000109878)
(0.0942722 0 -0.000123709)
(0.0942769 0 -0.000124941)
(0.0942623 0 -0.000100991)
(0.0942536 0 -7.85436e-05)
(0.0942682 0 -6.69226e-05)
(0.0942765 0 -4.31959e-05)
(0.094279 0 -1.24283e-05)
(0.0942821 0 2.03945e-05)
(0.0942733 0 4.88428e-05)
(0.103593 0 -3.3344e-06)
(0.103596 0 -1.09697e-05)
(0.103593 0 -1.58617e-05)
(0.103594 0 -2.09222e-05)
(0.103593 0 -2.40425e-05)
(0.103596 0 -2.87052e-05)
(0.103593 0 -2.65923e-05)
(0.103592 0 -2.45599e-05)
(0.103593 0 -2.26916e-05)
(0.103589 0 -1.62736e-05)
(0.103592 0 -1.29185e-05)
(0.103593 0 -7.47106e-06)
(0.103594 0 -8.91551e-07)
(0.103595 0 6.1373e-06)
(0.103595 0 1.27609e-05)
(0.103595 0 1.90037e-05)
(0.10359 0 1.9292e-05)
(0.103599 0 3.09375e-05)
(0.103594 0 2.75626e-05)
(0.103598 0 3.13481e-05)
(0.103596 0 2.72511e-05)
(0.103594 0 2.21662e-05)
(0.103594 0 1.73534e-05)
(0.1036 0 1.43773e-05)
(0.103591 0 4.64388e-06)
(0.103592 0 -1.59014e-06)
(0.103593 0 -8.1982e-06)
(0.103591 0 -1.29191e-05)
(0.103592 0 -1.86893e-05)
(0.103594 0 -2.4494e-05)
(0.103594 0 -2.6377e-05)
(0.103591 0 -2.50099e-05)
(0.103596 0 -2.89026e-05)
(0.103598 0 -2.81609e-05)
(0.103588 0 -1.65081e-05)
(0.103599 0 -1.81432e-05)
(0.103589 0 -7.62683e-06)
(0.103594 0 -2.62099e-06)
(0.103589 0 3.49231e-06)
(0.103595 0 1.10701e-05)
(0.113458 0 -4.81264e-07)
(0.113458 0 -1.42058e-06)
(0.113459 0 -2.54779e-06)
(0.113458 0 -3.09113e-06)
(0.113459 0 -4.0664e-06)
(0.113458 0 -3.41271e-06)
(0.113459 0 -4.33016e-06)
(0.113458 0 -3.79542e-06)
(0.113458 0 -3.39829e-06)
(0.113459 0 -3.31003e-06)
(0.113458 0 -2.04724e-06)
(0.113458 0 -1.01577e-06)
(0.113458 0 -1.25517e-07)
(0.113458 0 9.02636e-07)
(0.113459 0 1.94458e-06)
(0.113458 0 2.37974e-06)
(0.113458 0 3.52958e-06)
(0.113459 0 4.27653e-06)
(0.113459 0 4.5488e-06)
(0.113459 0 4.3198e-06)
(0.113458 0 3.96542e-06)
(0.113458 0 3.06832e-06)
(0.113457 0 1.92168e-06)
(0.113458 0 1.76871e-06)
(0.113458 0 6.31891e-07)
(0.113458 0 -2.54959e-07)
(0.113458 0 -1.26674e-06)
(0.113458 0 -2.06319e-06)
(0.113458 0 -2.92091e-06)
(0.113459 0 -3.78856e-06)
(0.113458 0 -3.80179e-06)
(0.113458 0 -4.1864e-06)
(0.113458 0 -3.37115e-06)
(0.113459 0 -4.114e-06)
(0.113458 0 -2.93881e-06)
(0.113458 0 -2.34948e-06)
(0.113458 0 -1.17182e-06)
(0.113458 0 -3.79431e-07)
(0.113458 0 5.198e-07)
(0.113458 0 1.5463e-06)
(0.12375 0 -3.26861e-08)
(0.12375 0 -1.50696e-07)
(0.12375 0 -2.60578e-07)
(0.12375 0 -2.70866e-07)
(0.12375 0 -3.45681e-07)
(0.12375 0 -2.76268e-07)
(0.12375 0 -3.72936e-07)
(0.12375 0 -3.69976e-07)
(0.12375 0 -3.3214e-07)
(0.12375 0 -2.44309e-07)
(0.12375 0 -1.83834e-07)
(0.12375 0 -9.83113e-08)
(0.12375 0 -1.11673e-08)
(0.12375 0 8.57321e-08)
(0.12375 0 1.61177e-07)
(0.12375 0 2.4464e-07)
(0.12375 0 2.54701e-07)
(0.12375 0 3.11082e-07)
(0.12375 0 3.98055e-07)
(0.12375 0 4.01206e-07)
(0.12375 0 3.49574e-07)
(0.12375 0 3.17996e-07)
(0.12375 0 2.0782e-07)
(0.12375 0 1.73085e-07)
(0.12375 0 6.7977e-08)
(0.12375 0 -2.24403e-08)
(0.12375 0 -1.17798e-07)
(0.12375 0 -1.99462e-07)
(0.12375 0 -2.48131e-07)
(0.12375 0 -3.05954e-07)
(0.12375 0 -3.22675e-07)
(0.12375 0 -3.68381e-07)
(0.12375 0 -3.03672e-07)
(0.12375 0 -3.6791e-07)
(0.12375 0 -2.92564e-07)
(0.12375 0 -2.11082e-07)
(0.12375 0 -1.14636e-07)
(0.12375 0 -3.79606e-08)
(0.12375 0 5.98992e-08)
(0.12375 0 1.41422e-07)
(0.134359 0 -2.65323e-09)
(0.134359 0 -6.56629e-09)
(0.134359 0 -8.4833e-09)
(0.134359 0 -1.48296e-08)
(0.134359 0 -1.57178e-08)
(0.134359 0 -1.98045e-08)
(0.134359 0 -1.81822e-08)
(0.134359 0 -1.63159e-08)
(0.134359 0 -1.71473e-08)
(0.134359 0 -1.58784e-08)
(0.134359 0 -1.0299e-08)
(0.134359 0 -4.73555e-09)
(0.134359 0 -5.68245e-10)
(0.134359 0 3.34957e-09)
(0.134359 0 8.95855e-09)
(0.134359 0 1.33441e-08)
(0.134359 0 1.46737e-08)
(0.134359 0 1.68272e-08)
(0.134359 0 1.92696e-08)
(0.134359 0 1.65084e-08)
(0.134359 0 1.61131e-08)
(0.134359 0 1.56894e-08)
(0.134359 0 1.07546e-08)
(0.134359 0 6.32921e-09)
(0.134359 0 4.1308e-09)
(0.134359 0 -1.33153e-09)
(0.134359 0 -5.14461e-09)
(0.134359 0 -1.06363e-08)
(0.134359 0 -1.16913e-08)
(0.134359 0 -1.89317e-08)
(0.134359 0 -1.87373e-08)
(0.134359 0 -1.57418e-08)
(0.134359 0 -1.60405e-08)
(0.134359 0 -1.77111e-08)
(0.134359 0 -1.14057e-08)
(0.134359 0 -9.07237e-09)
(0.134359 0 -5.58943e-09)
(0.134359 0 -1.89714e-09)
(0.134359 0 2.91735e-09)
(0.134359 0 8.78365e-09)
(0.145152 0 -6.36178e-11)
(0.145152 0 -1.93083e-10)
(0.145152 0 -2.63502e-10)
(0.145152 0 -3.78165e-10)
(0.145152 0 -4.79569e-10)
(0.145152 0 -4.68131e-10)
(0.145152 0 -4.50131e-10)
(0.145152 0 -4.41785e-10)
(0.145152 0 -4.03122e-10)
(0.145152 0 -3.25558e-10)
(0.145152 0 -2.34426e-10)
(0.145152 0 -1.24289e-10)
(0.145152 0 -1.62388e-11)
(0.145152 0 9.91064e-11)
(0.145152 0 1.80066e-10)
(0.145152 0 3.41654e-10)
(0.145152 0 4.31458e-10)
(0.145152 0 4.58719e-10)
(0.145152 0 4.89228e-10)
(0.145152 0 4.56643e-10)
(0.145152 0 4.541e-10)
(0.145152 0 4.17666e-10)
(0.145152 0 2.50845e-10)
(0.145152 0 1.99391e-10)
(0.145152 0 9.43181e-11)
(0.145152 0 -2.78155e-11)
(0.145152 0 -1.6124e-10)
(0.145152 0 -2.02137e-10)
(0.145152 0 -3.47828e-10)
(0.145152 0 -4.40042e-10)
(0.145152 0 -5.77437e-10)
(0.145152 0 -5.34695e-10)
(0.145152 0 -3.65271e-10)
(0.145152 0 -3.97685e-10)
(0.145152 0 -3.06624e-10)
(0.145152 0 -2.85028e-10)
(0.145152 0 -1.51724e-10)
(0.145152 0 -4.96235e-11)
(0.145152 0 7.76191e-11)
(0.145152 0 2.14824e-10)
(0.00147581 0 -7.60659e-05)
(0.00149936 0 -0.000233768)
(0.00154836 0 -0.000407671)
(0.00151488 0 -0.000504575)
(0.00151052 0 -0.000589016)
(0.00151099 0 -0.000641715)
(0.00153666 0 -0.000685017)
(0.00143521 0 -0.000540213)
(0.00152251 0 -0.000572352)
(0.00159079 0 -0.000526744)
(0.00154348 0 -0.000350411)
(0.00156109 0 -0.000197978)
(0.00144379 0 -1.82822e-05)
(0.00150114 0 0.000138496)
(0.001474 0 0.000274366)
(0.00147434 0 0.000400589)
(0.00163683 0 0.000661276)
(0.00151216 0 0.000614715)
(0.0014899 0 0.000626111)
(0.00149335 0 0.000627931)
(0.00143498 0 0.000522464)
(0.00141372 0 0.000433437)
(0.00152986 0 0.000429015)
(0.00152952 0 0.000286487)
(0.00141692 0 0.000101446)
(0.00150857 0 -3.96132e-05)
(0.00145165 0 -0.00017798)
(0.00155809 0 -0.000376853)
(0.00160681 0 -0.00055582)
(0.00141944 0 -0.00047502)
(0.00157662 0 -0.000707647)
(0.00155772 0 -0.000710785)
(0.00150842 0 -0.000634636)
(0.00138094 0 -0.000443277)
(0.00147194 0 -0.000453812)
(0.00141629 0 -0.000302905)
(0.00147352 0 -0.000205964)
(0.00153696 0 -6.53718e-05)
(0.00156383 0 0.000109709)
(0.001551 0 0.000275097)
(0.00459363 0 -0.000239142)
(0.00455972 0 -0.000687942)
(0.00473718 0 -0.00122286)
(0.00441565 0 -0.0013116)
(0.0045964 0 -0.00173749)
(0.00489636 0 -0.00224217)
(0.00464494 0 -0.00198661)
(0.00467243 0 -0.00193418)
(0.00451564 0 -0.00156968)
(0.0043989 0 -0.0011898)
(0.00456121 0 -0.00095381)
(0.0045649 0 -0.000524262)
(0.00466799 0 -6.41228e-05)
(0.00491335 0 0.000497121)
(0.00446349 0 0.000795836)
(0.0049386 0 0.00153292)
(0.00462052 0 0.00160899)
(0.0046467 0 0.00186413)
(0.00455211 0 0.00186656)
(0.00457065 0 0.00188173)
(0.00462488 0 0.00181898)
(0.00457681 0 0.00153395)
(0.00461035 0 0.00123295)
(0.0048201 0 0.000929777)
(0.00469197 0 0.000382194)
(0.00441798 0 -0.00010433)
(0.00492572 0 -0.000707975)
(0.00442598 0 -0.00091508)
(0.00445627 0 -0.00127374)
(0.00470745 0 -0.00179584)
(0.00446391 0 -0.00171018)
(0.00466596 0 -0.00201353)
(0.00466607 0 -0.00196025)
(0.00451968 0 -0.00163113)
(0.00446654 0 -0.00132438)
(0.00455388 0 -0.00105063)
(0.00456981 0 -0.000640825)
(0.00486561 0 -0.000214592)
(0.00465533 0 0.000305689)
(0.00477882 0 0.000840934)
(0.00809334 0 -0.000429537)
(0.00779365 0 -0.0011317)
(0.00780655 0 -0.00181755)
(0.00809879 0 -0.00265276)
(0.00807005 0 -0.00309042)
(0.00809221 0 -0.00338998)
(0.00743803 0 -0.00267669)
(0.00794427 0 -0.0031421)
(0.00803881 0 -0.00290681)
(0.00794391 0 -0.00230498)
(0.00834432 0 -0.00189964)
(0.00749633 0 -0.000761312)
(0.0078651 0 -0.000101435)
(0.00793245 0 0.000703936)
(0.00794306 0 0.00147421)
(0.00754738 0 0.00184139)
(0.00801226 0 0.00276315)
(0.00800556 0 0.00314355)
(0.00815558 0 0.00351501)
(0.00802286 0 0.00334535)
(0.00825814 0 0.00338731)
(0.00800876 0 0.002703)
(0.00780436 0 0.00197341)
(0.00831559 0 0.00157682)
(0.00839055 0 0.00071339)
(0.00841379 0 -0.000233515)
(0.00809944 0 -0.00105688)
(0.00842034 0 -0.00204097)
(0.0081281 0 -0.0025306)
(0.00843915 0 -0.00337254)
(0.00792319 0 -0.00314416)
(0.00850748 0 -0.00395594)
(0.00758487 0 -0.00277876)
(0.00841344 0 -0.0034094)
(0.00829596 0 -0.00276252)
(0.00795263 0 -0.00184084)
(0.00772801 0 -0.00102106)
(0.00888231 0 -0.000419623)
(0.0078545 0 0.000485287)
(0.00792301 0 0.0012754)
(0.0117618 0 -0.00061302)
(0.0119122 0 -0.00186678)
(0.0122529 0 -0.00322036)
(0.0127381 0 -0.00467042)
(0.0120649 0 -0.00477199)
(0.0124328 0 -0.00562483)
(0.0121227 0 -0.00536608)