/*--------------------------------*- C++ -*----------------------------------*\
| =========                 |                                                 |
| \\      /  F ield         | OpenFOAM: The Open Source CFD Toolbox           |
|  \\    /   O peration     | Version:  2.2.x                                 |
|   \\  /    A nd           | Web:      www.OpenFOAM.org                      |
|    \\/     M anipulation  |                                                 |
\*---------------------------------------------------------------------------*/
FoamFile
{
    version     2.0;
    format      ascii;
    class       volVectorField;
    location    "0";
    object      U;
}
// * * * * * * * * * * * * * * * * * * * * * * * * * * * * * * * * * * * * * //

dimensions      [0 1 -1 0 0 0 0];

internalField   nonuniform List<vector> 
38400
(
(0.00164509 0 -8.27905e-05)
(0.00181358 0 -0.00030593)
(0.00159493 0 -0.000357154)
(0.00157809 0 -0.000453507)
(0.00170548 0 -0.000645923)
(0.00165134 0 -0.000643489)
(0.00159573 0 -0.000592988)
(0.00171745 0 -0.000671137)
(0.00168686 0 -0.000560038)
(0.00155544 0 -0.000356741)
(0.00164184 0 -0.000272898)
(0.00167125 0 -0.000121299)
(0.00160115 0 4.54469e-05)
(0.00160466 0 0.000197753)
(0.00169446 0 0.000386422)
(0.001715 0 0.000535773)
(0.00165789 0 0.000587793)
(0.00165093 0 0.000636845)
(0.00166259 0 0.000661695)
(0.00169066 0 0.000658211)
(0.00170816 0 0.0005982)
(0.00164204 0 0.000437463)
(0.00173694 0 0.000347961)
(0.00163379 0 0.000147477)
(0.00166714 0 -1.50552e-05)
(0.00163612 0 -0.00017579)
(0.00167554 0 -0.000345678)
(0.00177028 0 -0.000549131)
(0.00166845 0 -0.000580408)
(0.00157729 0 -0.000558157)
(0.0017372 0 -0.000736597)
(0.00168286 0 -0.000660831)
(0.00162708 0 -0.000547169)
(0.00166442 0 -0.000477759)
(0.00174629 0 -0.000386702)
(0.0017295 0 -0.000206952)
(0.00157513 0 -1.75455e-05)
(0.00172246 0 0.000162405)
(0.00168972 0 0.000320978)
(0.00176351 0 0.000515229)
(0.00496212 0 -0.000239653)
(0.00517864 0 -0.000784145)
(0.00512302 0 -0.00121624)
(0.00494084 0 -0.00144718)
(0.00548444 0 -0.00218594)
(0.00533265 0 -0.00220855)
(0.00496448 0 -0.00186)
(0.00519169 0 -0.00196144)
(0.00508028 0 -0.00161891)
(0.00505924 0 -0.0012599)
(0.00478426 0 -0.000718821)
(0.00501293 0 -0.000346652)
(0.00491359 0 0.000137458)
(0.00515378 0 0.000672659)
(0.00526347 0 0.00120617)
(0.00533255 0 0.00167605)
(0.00549817 0 0.00214431)
(0.00493593 0 0.0018016)
(0.00513839 0 0.00204002)
(0.00495686 0 0.00177541)
(0.00493697 0 0.00155722)
(0.00474677 0 0.00112657)
(0.00512893 0 0.000960738)
(0.00535678 0 0.000525654)
(0.00507072 0 -4.45839e-05)
(0.00513738 0 -0.000564078)
(0.00475207 0 -0.00084904)
(0.0051894 0 -0.00149379)
(0.0054493 0 -0.00204199)
(0.00484206 0 -0.00168881)
(0.00536008 0 -0.00226265)
(0.00552086 0 -0.00234499)
(0.00482112 0 -0.00150688)
(0.00492973 0 -0.00131986)
(0.00503879 0 -0.00100798)
(0.00528824 0 -0.000622122)
(0.00524455 0 -6.54695e-05)
(0.00503368 0 0.000436063)
(0.00532302 0 0.00103628)
(0.00487451 0 0.00120267)
(0.00875423 0 -0.000431087)
(0.00878821 0 -0.00127757)
(0.00867903 0 -0.0019705)
(0.00870172 0 -0.00259211)
(0.00901087 0 -0.00331072)
(0.0088018 0 -0.00336539)
(0.00896014 0 -0.00354503)
(0.0088172 0 -0.00320286)
(0.00904587 0 -0.00297617)
(0.00892222 0 -0.00226203)
(0.00904777 0 -0.00155206)
(0.00905648 0 -0.00066141)
(0.00818995 0 0.000211463)
(0.0090787 0 0.0012034)
(0.00931101 0 0.00217779)
(0.00931319 0 0.00293492)
(0.00856795 0 0.00283613)
(0.00882018 0 0.00335059)
(0.00930163 0 0.00389808)
(0.0084801 0 0.00294299)
(0.00928162 0 0.00328183)
(0.00881549 0 0.00233007)
(0.00936089 0 0.00187208)
(0.00910419 0 0.000862371)
(0.00883442 0 -7.7616e-05)
(0.00877251 0 -0.000933163)
(0.00914173 0 -0.00191632)
(0.00875701 0 -0.00239922)
(0.00879003 0 -0.00294812)
(0.00902006 0 -0.0035001)
(0.00872512 0 -0.00333016)
(0.00924446 0 -0.00372315)
(0.00821217 0 -0.00246067)
(0.0087142 0 -0.0023872)
(0.00850711 0 -0.00161482)
(0.00895395 0 -0.00100998)
(0.00975768 0 -0.000132764)
(0.00965943 0 0.000957875)
(0.0089858 0 0.00167095)
(0.00864452 0 0.00219548)
(0.0137917 0 -0.000752933)
(0.0131298 0 -0.00196166)
(0.0121422 0 -0.00253701)
(0.0124071 0 -0.00352081)
(0.0123724 0 -0.00408323)
(0.0127548 0 -0.00477892)
(0.0125989 0 -0.00465785)
(0.0136074 0 -0.00532053)
(0.0127108 0 -0.00390986)
(0.0132259 0 -0.0034034)
(0.0132532 0 -0.00226696)
(0.0130153 0 -0.000921068)
(0.0129689 0 0.000381551)
(0.0124026 0 0.00146686)
(0.0128018 0 0.00271875)
(0.0127291 0 0.00360777)
(0.0129493 0 0.00449472)
(0.0127428 0 0.00472089)
(0.013376 0 0.00544751)
(0.013371 0 0.00519521)
(0.0138712 0 0.00502549)
(0.0122108 0 0.00292748)
(0.0135079 0 0.00263927)
(0.0138108 0 0.00136939)
(0.0138586 0 -0.000133923)
(0.0123848 0 -0.00123499)
(0.0132706 0 -0.00273808)
(0.0128859 0 -0.00354496)
(0.0119438 0 -0.00350131)
(0.0136954 0 -0.00557537)
(0.0126939 0 -0.00477659)
(0.0136618 0 -0.00555473)
(0.0130304 0 -0.00445844)
(0.012749 0 -0.00347459)
(0.0124367 0 -0.0023448)
(0.0128334 0 -0.00139543)
(0.0126281 0 -0.000143602)
(0.0123987 0 0.00100856)
(0.0126356 0 0.00219685)
(0.0136223 0 0.00384953)
(0.017285 0 -0.000847127)
(0.0168778 0 -0.00233329)
(0.017343 0 -0.00399479)
(0.0182616 0 -0.00593437)
(0.0178923 0 -0.00659952)
(0.0170367 0 -0.00627795)
(0.0173843 0 -0.00666465)
(0.0177253 0 -0.00658817)
(0.0173357 0 -0.00542518)
(0.0181467 0 -0.00478378)
(0.0172594 0 -0.00279557)
(0.016638 0 -0.00107695)
(0.0171695 0 0.000490088)
(0.0172619 0 0.00215026)
(0.0179886 0 0.00406364)
(0.0174298 0 0.00505724)
(0.0176448 0 0.00621741)
(0.0185327 0 0.00767071)
(0.0173399 0 0.00664744)
(0.0185605 0 0.00750113)
(0.0180567 0 0.00622687)
(0.0168818 0 0.00422447)
(0.0170658 0 0.00301637)
(0.016423 0 0.00133654)
(0.0175069 0 -0.000153965)
(0.0163927 0 -0.00157901)
(0.0172418 0 -0.00335665)
(0.0167751 0 -0.00434939)
(0.0171897 0 -0.00565044)
(0.0169238 0 -0.00603021)
(0.0178879 0 -0.00719963)
(0.0179433 0 -0.00702301)
(0.0174174 0 -0.00587305)
(0.0171563 0 -0.00465527)
(0.0172655 0 -0.00341337)
(0.0168568 0 -0.00175329)
(0.016834 0 -0.000187545)
(0.0182573 0 0.00170212)
(0.0173016 0 0.00308081)
(0.0170151 0 0.00427788)
(0.0225925 0 -0.00113904)
(0.0214721 0 -0.00292308)
(0.0233994 0 -0.00580579)
(0.0208271 0 -0.00558268)
(0.0209387 0 -0.00662606)
(0.0237317 0 -0.00988684)
(0.0215216 0 -0.0077713)
(0.0234309 0 -0.00908762)
(0.0227326 0 -0.0073531)
(0.0226502 0 -0.00573084)
(0.0215302 0 -0.00332487)
(0.0207921 0 -0.00128104)
(0.0220758 0 0.000631855)
(0.0229676 0 0.00302311)
(0.0209343 0 0.00402407)
(0.0224328 0 0.00653604)
(0.0219759 0 0.00738347)
(0.0203423 0 0.00649718)
(0.0210735 0 0.00735808)
(0.0222967 0 0.00818193)
(0.0201873 0 0.00548266)
(0.0225151 0 0.00599472)
(0.0209162 0 0.00340745)
(0.0213205 0 0.00177103)
(0.0214975 0 -0.000175785)
(0.0211004 0 -0.00204294)
(0.0221938 0 -0.00434024)
(0.021175 0 -0.00532942)
(0.0227134 0 -0.00781244)
(0.0209477 0 -0.0069961)
(0.0217662 0 -0.00805488)
(0.0217184 0 -0.00775175)
(0.0217017 0 -0.00697086)
(0.0231838 0 -0.00680556)
(0.0212114 0 -0.00389169)
(0.0223189 0 -0.00244268)
(0.0223103 0 -0.000261988)
(0.0220651 0 0.00187876)
(0.0206325 0 0.00322586)
(0.0223852 0 0.00585646)
(0.0269897 0 -0.0012786)
(0.0276775 0 -0.00400878)
(0.0269103 0 -0.00593009)
(0.0271405 0 -0.0079268)
(0.0268834 0 -0.00903031)
(0.0264276 0 -0.00929174)
(0.0272149 0 -0.0101336)
(0.0267259 0 -0.00908072)
(0.0255593 0 -0.00696776)
(0.0260975 0 -0.00582317)
(0.0277026 0 -0.0045368)
(0.023888 0 -0.00124399)
(0.0253989 0 0.000633416)
(0.0266447 0 0.00314478)
(0.0256365 0 0.00479807)
(0.0251808 0 0.00612323)
(0.0277144 0 0.00954545)
(0.0256961 0 0.0084907)
(0.0277457 0 0.010701)
(0.0256499 0 0.0082301)
(0.0263396 0 0.007875)
(0.0269434 0 0.0067567)
(0.0284144 0 0.0053767)
(0.0263215 0 0.00216353)
(0.0262041 0 -0.000207265)
(0.0269546 0 -0.00274325)
(0.0285426 0 -0.00588894)
(0.027369 0 -0.00737904)
(0.0264502 0 -0.00818718)
(0.0260392 0 -0.00871278)
(0.0256442 0 -0.00862664)
(0.0270186 0 -0.00967264)
(0.0269756 0 -0.0086791)
(0.0252875 0 -0.00594933)
(0.0258045 0 -0.00455659)
(0.0253602 0 -0.00236908)
(0.0266157 0 -0.000292354)
(0.0268322 0 0.00220601)
(0.0272169 0 0.00474347)
(0.0277944 0 0.00726996)
(0.0291411 0 -0.00109256)
(0.0328818 0 -0.00460471)
(0.0315789 0 -0.00656029)
(0.0322779 0 -0.00911522)
(0.0318229 0 -0.010239)
(0.0323945 0 -0.0116036)
(0.0296454 0 -0.00896734)
(0.03087 0 -0.00957648)
(0.0321531 0 -0.0093842)
(0.0319567 0 -0.00725577)
(0.0294682 0 -0.00375759)
(0.0306096 0 -0.00180241)
(0.0297174 0 0.000686517)
(0.0316344 0 0.00359244)
(0.0321132 0 0.00638257)
(0.0331177 0 0.0093448)
(0.0323383 0 0.0104444)
(0.0300259 0 0.00918926)
(0.0316925 0 0.0110342)
(0.0310973 0 0.00996905)
(0.0299346 0 0.0078617)
(0.0315099 0 0.00740326)
(0.0282024 0 0.00358244)
(0.0311769 0 0.0024511)
(0.0310227 0 -0.000234337)
(0.0308306 0 -0.00281598)
(0.030653 0 -0.00512612)
(0.030344 0 -0.00692832)
(0.0319042 0 -0.00977691)
(0.0327937 0 -0.011729)
(0.0291449 0 -0.00851709)
(0.0309965 0 -0.0100254)
(0.0326095 0 -0.0104318)
(0.0314628 0 -0.00778102)
(0.0313817 0 -0.00556938)
(0.0301566 0 -0.00270335)
(0.0320196 0 -0.000346635)
(0.0309357 0 0.00231606)
(0.0333657 0 0.005917)
(0.0315204 0 0.00734718)
(0.0345348 0 -0.00127733)
(0.0359364 0 -0.00427203)
(0.0373695 0 -0.0076606)
(0.0385041 0 -0.0108919)
(0.035679 0 -0.010159)
(0.0328522 0 -0.00818242)
(0.0372334 0 -0.0125676)
(0.0378102 0 -0.0123619)
(0.0370547 0 -0.0101599)
(0.0359037 0 -0.00725761)
(0.0352635 0 -0.00453928)
(0.0361663 0 -0.0020919)
(0.0369216 0 0.000931174)
(0.0347953 0 0.00333817)
(0.0344071 0 0.00547019)
(0.0367222 0 0.0090919)
(0.0377477 0 0.0117448)
(0.035302 0 0.0104836)
(0.035593 0 0.010991)
(0.0368366 0 0.011669)
(0.0361588 0 0.00977575)
(0.0361859 0 0.00789857)
(0.0347386 0 0.00479902)
(0.0379939 0 0.00311495)
(0.0360237 0 -0.000258031)
(0.0352926 0 -0.00295813)
(0.0365888 0 -0.00613863)
(0.0377687 0 -0.00939543)
(0.0351742 0 -0.00919548)
(0.0363047 0 -0.0113134)
(0.0348887 0 -0.0103046)
(0.0381288 0 -0.0130908)
(0.0360487 0 -0.00999437)
(0.0379406 0 -0.00959084)
(0.0372816 0 -0.00657685)
(0.0365073 0 -0.00338196)
(0.0360865 0 -0.000350353)
(0.0346623 0 0.00226747)
(0.0353724 0 0.00502112)
(0.035381 0 0.00729116)
(0.0433763 0 -0.00185586)
(0.043435 0 -0.00546726)
(0.0410226 0 -0.00727353)
(0.0383066 0 -0.00738835)
(0.0404737 0 -0.0106067)
(0.0414894 0 -0.0124357)
(0.0414002 0 -0.0124333)
(0.0424793 0 -0.0127025)
(0.040928 0 -0.00981201)
(0.0408347 0 -0.00765794)
(0.0427146 0 -0.00586872)
(0.0399475 0 -0.00199828)
(0.0413372 0 0.000939644)
(0.0412664 0 0.00404214)
(0.0408039 0 0.00662799)
(0.0408107 0 0.00893236)
(0.0388086 0 0.00886782)
(0.0392651 0 0.0101536)
(0.0409126 0 0.0119997)
(0.0377594 0 0.00846849)
(0.0432379 0 0.0121064)
(0.0424814 0 0.00924703)
(0.0432472 0 0.00677304)
(0.0417694 0 0.00299313)
(0.0431892 0 -0.000322208)
(0.0419868 0 -0.00361442)
(0.0403225 0 -0.00584939)
(0.0410065 0 -0.00864054)
(0.0393526 0 -0.0090882)
(0.0389991 0 -0.00977027)
(0.0408513 0 -0.0119532)
(0.0422395 0 -0.0129062)
(0.0407112 0 -0.0103061)
(0.0398628 0 -0.00789049)
(0.0411334 0 -0.00634456)
(0.0386355 0 -0.00276878)
(0.0380205 0 -0.000278642)
(0.0401316 0 0.00252811)
(0.0415329 0 0.00588019)
(0.0429698 0 0.00949586)
(0.0458834 0 -0.00157795)
(0.0444771 0 -0.00410393)
(0.0472463 0 -0.00818888)
(0.0458505 0 -0.00961212)
(0.045348 0 -0.0107766)
(0.0448709 0 -0.0111542)
(0.0452444 0 -0.0116001)
(0.0465925 0 -0.0121687)
(0.0458375 0 -0.0099919)
(0.0453629 0 -0.00755641)
(0.0452197 0 -0.00494716)
(0.0458585 0 -0.00221792)
(0.0443198 0 0.000811697)
(0.0453027 0 0.00383074)
(0.0463709 0 0.00711428)
(0.0453346 0 0.00881052)
(0.0470449 0 0.0120172)
(0.0431608 0 0.00938418)
(0.0458085 0 0.0122065)
(0.0443197 0 0.0102419)
(0.0468259 0 0.0111834)
(0.046447 0 0.00875854)
(0.0487223 0 0.00714268)
(0.0456832 0 0.00281434)
(0.0471185 0 -0.00030521)
(0.0458474 0 -0.0033875)
(0.0470588 0 -0.00689093)
(0.0454329 0 -0.00845551)
(0.0461525 0 -0.0109103)
(0.0468059 0 -0.0127632)
(0.0426401 0 -0.00907421)
(0.0445154 0 -0.0105875)
(0.0458333 0 -0.0106827)
(0.0467041 0 -0.00942891)
(0.0461232 0 -0.00650029)
(0.046197 0 -0.0035792)
(0.0459853 0 -0.00037786)
(0.045308 0 0.00263734)
(0.0468891 0 0.0061894)
(0.0449824 0 0.00770121)
(0.0507698 0 -0.00155089)
(0.0509833 0 -0.00463033)
(0.0492989 0 -0.00637381)
(0.0497414 0 -0.00867182)
(0.0513853 0 -0.0116306)
(0.0499438 0 -0.011129)
(0.0492277 0 -0.0104981)
(0.049474 0 -0.0101073)
(0.0501318 0 -0.00934026)
(0.051012 0 -0.00790719)
(0.0502279 0 -0.00490899)
(0.0501904 0 -0.00208028)
(0.0505982 0 0.00090023)
(0.0504331 0 0.00384103)
(0.0501137 0 0.00636462)
(0.0518181 0 0.00984183)
(0.0496715 0 0.00982334)
(0.0492527 0 0.0103493)
(0.0508529 0 0.0121526)
(0.0478077 0 0.00871675)
(0.0507748 0 0.0102182)
(0.0502631 0 0.00789063)
(0.0503872 0 0.00553111)
(0.0502156 0 0.0026835)
(0.0484225 0 -0.000220143)
(0.0493002 0 -0.00293582)
(0.0506353 0 -0.00611713)
(0.050232 0 -0.00824319)
(0.050064 0 -0.0098863)
(0.0489297 0 -0.00990883)
(0.0494034 0 -0.0107275)
(0.0488927 0 -0.00989397)
(0.0484713 0 -0.00855067)
(0.051128 0 -0.00894692)
(0.049185 0 -0.00545112)
(0.0489905 0 -0.00292917)
(0.0503831 0 -0.000356641)
(0.04862 0 0.00223816)
(0.0500298 0 0.00528403)
(0.0497496 0 0.00747884)
(0.0547543 0 -0.00135312)
(0.0539599 0 -0.0036731)
(0.0531944 0 -0.00539626)
(0.0539692 0 -0.00765339)
(0.0538305 0 -0.00881841)
(0.0518447 0 -0.00756188)
(0.0554899 0 -0.0112155)
(0.0536737 0 -0.00886494)
(0.0528357 0 -0.00704583)
(0.054152 0 -0.00638046)
(0.0536489 0 -0.00401587)
(0.0532562 0 -0.00163682)
(0.0545017 0 0.000777716)
(0.0545614 0 0.003384)
(0.0539999 0 0.00545237)
(0.0552196 0 0.00825226)
(0.0533902 0 0.00821057)
(0.0548806 0 0.0104386)
(0.0527074 0 0.00850047)
(0.0528664 0 0.00826472)
(0.0523636 0 0.00690462)
(0.0553767 0 0.0076048)
(0.0517865 0 0.00358953)
(0.0565454 0 0.0028669)
(0.0555508 0 -0.000255839)
(0.0540864 0 -0.00273002)
(0.0532991 0 -0.00465695)
(0.0521915 0 -0.00570808)
(0.0545751 0 -0.00900226)
(0.0539944 0 -0.00945657)
(0.0545962 0 -0.0103866)
(0.052926 0 -0.00844905)
(0.0541298 0 -0.00865681)
(0.0543812 0 -0.00731634)
(0.0537977 0 -0.00497549)
(0.0543736 0 -0.00288606)
(0.0545234 0 -0.000314387)
(0.0534961 0 0.00209071)
(0.0531078 0 0.00414743)
(0.0548979 0 0.0072187)
(0.0576757 0 -0.000960872)
(0.0585398 0 -0.00314249)
(0.0571124 0 -0.00415635)
(0.0588658 0 -0.00679534)
(0.0593838 0 -0.00841307)
(0.0574528 0 -0.00717852)
(0.0589227 0 -0.00868031)
(0.0569048 0 -0.00629182)
(0.0585379 0 -0.00680559)
(0.0577097 0 -0.00482501)
(0.0581846 0 -0.00339808)
(0.05735 0 -0.00129485)
(0.0594047 0 0.000695485)
(0.0581086 0 0.00258803)
(0.0577185 0 0.00419168)
(0.0581015 0 0.00593106)
(0.0588004 0 0.00768816)
(0.0582133 0 0.00784782)
(0.0573856 0 0.00719041)
(0.0560178 0 0.00556848)
(0.0590775 0 0.00750497)
(0.0574781 0 0.00496749)
(0.0572198 0 0.00332415)
(0.0571308 0 0.00161602)
(0.0589314 0 -0.000197144)
(0.0588371 0 -0.00238752)
(0.0574689 0 -0.00372718)
(0.0584108 0 -0.00586441)
(0.0578192 0 -0.0066262)
(0.0578099 0 -0.00736181)
(0.0573257 0 -0.00713962)
(0.0579894 0 -0.00754974)
(0.0579742 0 -0.00679014)
(0.0581441 0 -0.00571926)
(0.057767 0 -0.0039301)
(0.0579133 0 -0.00219265)
(0.058402 0 -0.000250201)
(0.0577748 0 0.00170641)
(0.0576955 0 0.00349496)
(0.0568116 0 0.00447794)
(0.0614108 0 -0.000610351)
(0.062097 0 -0.0020475)
(0.0619578 0 -0.00317934)
(0.0621205 0 -0.00428041)
(0.0624626 0 -0.00531387)
(0.0617571 0 -0.00503862)
(0.0621812 0 -0.00549231)
(0.0623407 0 -0.00531639)
(0.0622935 0 -0.00459442)
(0.06197 0 -0.00340745)
(0.0622127 0 -0.0023606)
(0.0622116 0 -0.00100339)
(0.0619203 0 0.000397595)
(0.062544 0 0.00192259)
(0.0621443 0 0.0030531)
(0.0625263 0 0.00439681)
(0.0618514 0 0.00464058)
(0.0622685 0 0.00548662)
(0.0622768 0 0.00560936)
(0.0623824 0 0.00545438)
(0.0624246 0 0.00487078)
(0.0620353 0 0.0036629)
(0.0616226 0 0.00234684)
(0.0623486 0 0.0013232)
(0.0620729 0 -0.00012219)
(0.0625019 0 -0.00161356)
(0.062141 0 -0.00280553)
(0.0617624 0 -0.00364339)
(0.0619049 0 -0.00455654)
(0.0615154 0 -0.00469487)
(0.0623345 0 -0.00567336)
(0.0624346 0 -0.00558842)
(0.0617862 0 -0.00447412)
(0.0626526 0 -0.00430743)
(0.0612025 0 -0.00235927)
(0.0611184 0 -0.0012678)
(0.0623896 0 -0.000174596)
(0.0623984 0 0.00129051)
(0.0615698 0 0.00228775)
(0.0612677 0 0.00311667)
(0.0672173 0 -0.000459246)
(0.0665343 0 -0.00109205)
(0.0675872 0 -0.00236735)
(0.0668892 0 -0.00254953)
(0.0667313 0 -0.00283601)
(0.0676741 0 -0.00398371)
(0.0681976 0 -0.00452841)
(0.0671592 0 -0.00329562)
(0.0669652 0 -0.00271466)
(0.0667919 0 -0.00202471)
(0.0676052 0 -0.00168518)
(0.0671745 0 -0.000639116)
(0.067204 0 0.000269388)
(0.067301 0 0.00119694)
(0.067003 0 0.00187361)
(0.0663041 0 0.00200306)
(0.0671983 0 0.00318063)
(0.0675161 0 0.00379153)
(0.0668245 0 0.00318446)
(0.0674337 0 0.00361666)
(0.0667808 0 0.00265813)
(0.0672471 0 0.00245826)
(0.0668641 0 0.00152524)
(0.0665326 0 0.000674324)
(0.0676885 0 -9.13323e-05)
(0.067264 0 -0.00100158)
(0.0665597 0 -0.00149734)
(0.0664001 0 -0.00197456)
(0.0664928 0 -0.00248282)
(0.0664594 0 -0.00272978)
(0.0664063 0 -0.00277298)
(0.0674645 0 -0.00370191)
(0.0676755 0 -0.00351868)
(0.0678156 0 -0.0030009)
(0.0673597 0 -0.00192925)
(0.0666559 0 -0.000857643)
(0.0671542 0 -0.000107165)
(0.0664085 0 0.000624281)
(0.0667522 0 0.00145094)
(0.0678525 0 0.00284344)
(0.07324 0 -0.000268983)
(0.0728432 0 -0.000640857)
(0.0731119 0 -0.00118118)
(0.0731197 0 -0.00154925)
(0.0728868 0 -0.00159869)
(0.0730245 0 -0.00185929)
(0.0729992 0 -0.00184712)
(0.0728608 0 -0.00160943)
(0.0733598 0 -0.00180664)
(0.073024 0 -0.00120704)
(0.0730322 0 -0.000803355)
(0.0727855 0 -0.000297254)
(0.0731784 0 0.000153751)
(0.0732467 0 0.000687321)
(0.0732917 0 0.00119537)
(0.0730961 0 0.00146442)
(0.0730457 0 0.00170038)
(0.0730451 0 0.00186125)
(0.0729786 0 0.00183413)
(0.0728811 0 0.00165847)
(0.0728118 0 0.00141206)
(0.0728406 0 0.00115774)
(0.0730631 0 0.000907421)
(0.0728888 0 0.000406491)
(0.0726999 0 -3.51998e-05)
(0.0729861 0 -0.000509449)
(0.0731289 0 -0.00101633)
(0.0729085 0 -0.00126084)
(0.0731389 0 -0.0017331)
(0.0730477 0 -0.00184035)
(0.0728316 0 -0.0016903)
(0.0730585 0 -0.00185449)
(0.0731383 0 -0.00174028)
(0.0731307 0 -0.00142932)
(0.073179 0 -0.00105562)
(0.0734858 0 -0.000664359)
(0.0732219 0 -6.33373e-05)
(0.0728978 0 0.000395039)
(0.072868 0 0.000803793)
(0.0730206 0 0.00126865)
(0.0801736 0 -0.000126849)
(0.0800202 0 -0.000314814)
(0.080054 0 -0.000521753)
(0.0800449 0 -0.000674616)
(0.0800127 0 -0.00075909)
(0.0799851 0 -0.000791548)
(0.079972 0 -0.000784061)
(0.0799254 0 -0.00069445)
(0.0799498 0 -0.000624904)
(0.0801528 0 -0.000620873)
(0.0801619 0 -0.000415299)
(0.0798742 0 -0.000124909)
(0.0800303 0 6.39314e-05)
(0.0800425 0 0.00028053)
(0.0799915 0 0.000449588)
(0.0802163 0 0.000772901)
(0.0799732 0 0.000705355)
(0.0799753 0 0.000774349)
(0.0800122 0 0.000827122)
(0.0799865 0 0.000765214)
(0.0801666 0 0.000829564)
(0.0801878 0 0.000683054)
(0.0799137 0 0.000345094)
(0.0801253 0 0.0002188)
(0.0800144 0 -1.87415e-05)
(0.0801087 0 -0.000255304)
(0.080024 0 -0.0004299)
(0.0800809 0 -0.000639685)
(0.0800751 0 -0.000773492)
(0.0801095 0 -0.000893356)
(0.0800443 0 -0.00086004)
(0.0800305 0 -0.000819323)
(0.0799723 0 -0.000687872)
(0.0800021 0 -0.000588383)
(0.08006 0 -0.000454113)
(0.0799523 0 -0.000218221)
(0.0802001 0 -3.09297e-05)
(0.0800189 0 0.000187793)
(0.0800559 0 0.000405736)
(0.0801505 0 0.000652222)
(0.0880216 0 -3.30945e-05)
(0.0880964 0 -0.000125066)
(0.0880821 0 -0.000190759)
(0.0881228 0 -0.000280915)
(0.088131 0 -0.000335774)
(0.0880725 0 -0.000304677)
(0.0880357 0 -0.000270436)
(0.0881206 0 -0.000333447)
(0.0880888 0 -0.000264817)
(0.0880344 0 -0.000173599)
(0.088038 0 -0.000116556)
(0.0880543 0 -5.2484e-05)
(0.0880155 0 1.90268e-05)
(0.0880789 0 0.000102899)
(0.0880392 0 0.000153308)
(0.0880563 0 0.000219199)
(0.0880489 0 0.000254671)
(0.0880289 0 0.000259431)
(0.0880861 0 0.000321509)
(0.0880476 0 0.000270448)
(0.0880303 0 0.000225258)
(0.0880944 0 0.000224952)
(0.0880666 0 0.00014299)
(0.0880524 0 6.71157e-05)
(0.088052 0 -6.50137e-06)
(0.0880751 0 -8.59332e-05)
(0.0880085 0 -0.000125344)
(0.0880431 0 -0.000199307)
(0.0880985 0 -0.000290299)
(0.0880664 0 -0.000292142)
(0.0880201 0 -0.000256388)
(0.0881125 0 -0.000337067)
(0.0880719 0 -0.000268532)
(0.0880177 0 -0.000182668)
(0.0880451 0 -0.000145861)
(0.0880591 0 -8.37777e-05)
(0.0880338 0 -8.22819e-06)
(0.0880281 0 5.94635e-05)
(0.0880318 0 0.000124787)
(0.088041 0 0.000187233)
(0.0969675 0 -1.23977e-05)
(0.0969541 0 -3.13807e-05)
(0.0969494 0 -4.71608e-05)
(0.0969631 0 -7.2327e-05)
(0.0969502 0 -7.28006e-05)
(0.096954 0 -8.2185e-05)
(0.0969582 0 -8.69701e-05)
(0.0969544 0 -7.82854e-05)
(0.0969568 0 -7.01111e-05)
(0.0969453 0 -4.78458e-05)
(0.0969629 0 -3.91216e-05)
(0.0969492 0 -1.41714e-05)
(0.0969658 0 7.1709e-06)
(0.0969539 0 2.71585e-05)
(0.0969668 0 5.34047e-05)
(0.0969514 0 6.04299e-05)
(0.0969509 0 7.16465e-05)
(0.0969548 0 8.22178e-05)
(0.0969579 0 8.69442e-05)
(0.096943 0 6.89286e-05)
(0.0969593 0 7.47543e-05)
(0.0969494 0 5.35935e-05)
(0.0969531 0 3.89194e-05)
(0.0969662 0 2.21773e-05)
(0.0969445 0 -1.6652e-06)
(0.0969554 0 -2.33894e-05)
(0.0969485 0 -3.9792e-05)
(0.0969481 0 -5.52003e-05)
(0.0969686 0 -8.48822e-05)
(0.0969582 0 -8.43937e-05)
(0.0969461 0 -7.53836e-05)
(0.0969527 0 -7.92824e-05)
(0.0969558 0 -7.41215e-05)
(0.0969461 0 -5.4208e-05)
(0.0969404 0 -3.61522e-05)
(0.09695 0 -2.25041e-05)
(0.0969555 0 -2.58262e-06)
(0.0969571 0 1.94226e-05)
(0.0969592 0 4.11431e-05)
(0.0969534 0 5.57993e-05)
(0.106494 0 -2.03474e-06)
(0.106495 0 -6.68418e-06)
(0.106494 0 -9.63604e-06)
(0.106494 0 -1.26503e-05)
(0.106493 0 -1.44392e-05)
(0.106495 0 -1.70802e-05)
(0.106493 0 -1.56232e-05)
(0.106493 0 -1.41754e-05)
(0.106493 0 -1.27605e-05)
(0.106491 0 -8.77425e-06)
(0.106493 0 -6.41631e-06)
(0.106494 0 -2.87683e-06)
(0.106494 0 1.24964e-06)
(0.106495 0 5.49794e-06)
(0.106494 0 9.3318e-06)
(0.106495 0 1.28287e-05)
(0.106492 0 1.23854e-05)
(0.106497 0 1.9071e-05)
(0.106494 0 1.63397e-05)
(0.106496 0 1.78036e-05)
(0.106495 0 1.46773e-05)
(0.106494 0 1.10786e-05)
(0.106494 0 7.64129e-06)
(0.106498 0 4.66478e-06)
(0.106492 0 -3.30854e-07)
(0.106493 0 -4.26767e-06)
(0.106494 0 -8.12627e-06)
(0.106492 0 -1.02671e-05)
(0.106493 0 -1.3257e-05)
(0.106494 0 -1.60393e-05)
(0.106494 0 -1.61288e-05)
(0.106492 0 -1.42856e-05)
(0.106495 0 -1.52822e-05)
(0.106496 0 -1.34721e-05)
(0.106491 0 -6.77225e-06)
(0.106497 0 -5.43768e-06)
(0.106491 0 -4.06418e-07)
(0.106494 0 3.65065e-06)
(0.106491 0 6.27926e-06)
(0.106494 0 1.12718e-05)
(0.11654 0 -2.5471e-07)
(0.11654 0 -7.50748e-07)
(0.116541 0 -1.3424e-06)
(0.116541 0 -1.621e-06)
(0.116541 0 -2.1181e-06)
(0.11654 0 -1.76118e-06)
(0.116541 0 -2.20643e-06)
(0.11654 0 -1.89995e-06)
(0.11654 0 -1.65742e-06)
(0.116541 0 -1.54785e-06)
(0.116541 0 -8.8189e-07)
(0.11654 0 -3.39236e-07)
(0.11654 0 1.52586e-07)
(0.116541 0 7.01306e-07)
(0.116541 0 1.23334e-06)
(0.11654 0 1.39331e-06)
(0.116541 0 1.96531e-06)
(0.116541 0 2.2864e-06)
(0.116541 0 2.3388e-06)
(0.116541 0 2.12781e-06)
(0.116541 0 1.85235e-06)
(0.11654 0 1.33005e-06)
(0.11654 0 7.33901e-07)
(0.116541 0 4.97716e-07)
(0.11654 0 -3.90454e-08)
(0.116541 0 -5.93472e-07)
(0.116541 0 -1.08901e-06)
(0.11654 0 -1.42209e-06)
(0.116541 0 -1.79697e-06)
(0.116541 0 -2.15165e-06)
(0.11654 0 -2.01622e-06)
(0.116541 0 -2.07395e-06)
(0.11654 0 -1.54597e-06)
(0.116541 0 -1.70697e-06)
(0.11654 0 -1.04563e-06)
(0.116541 0 -6.10724e-07)
(0.11654 0 -5.41577e-08)
(0.11654 0 4.58364e-07)
(0.11654 0 8.10594e-07)
(0.11654 0 1.36554e-06)
(0.126981 0 -1.45105e-08)
(0.126981 0 -6.68008e-08)
(0.126981 0 -1.15162e-07)
(0.126981 0 -1.19145e-07)
(0.126981 0 -1.5103e-07)
(0.126981 0 -1.19588e-07)
(0.126981 0 -1.59395e-07)
(0.126981 0 -1.5535e-07)
(0.126981 0 -1.35877e-07)
(0.126981 0 -9.58275e-08)
(0.126981 0 -6.64241e-08)
(0.126981 0 -2.75399e-08)
(0.126981 0 1.13871e-08)
(0.126981 0 5.58717e-08)
(0.126981 0 8.57458e-08)
(0.126981 0 1.20143e-07)
(0.126981 0 1.18957e-07)
(0.126981 0 1.39505e-07)
(0.126981 0 1.71669e-07)
(0.126981 0 1.65764e-07)
(0.126981 0 1.36971e-07)
(0.126981 0 1.15623e-07)
(0.126981 0 6.65728e-08)
(0.126981 0 4.08543e-08)
(0.126981 0 -3.52325e-09)
(0.126981 0 -4.38139e-08)
(0.126981 0 -8.49448e-08)
(0.126981 0 -1.15319e-07)
(0.126981 0 -1.28043e-07)
(0.126981 0 -1.45749e-07)
(0.126981 0 -1.43539e-07)
(0.126981 0 -1.53077e-07)
(0.126981 0 -1.1681e-07)
(0.126981 0 -1.28043e-07)
(0.126981 0 -8.73136e-08)
(0.126981 0 -4.60234e-08)
(0.126981 0 -4.44402e-09)
(0.126981 0 3.84649e-08)
(0.126981 0 7.83506e-08)
(0.126981 0 1.04756e-07)
(0.1377 0 -9.48312e-10)
(0.1377 0 -2.34347e-09)
(0.1377 0 -3.01854e-09)
(0.1377 0 -5.25182e-09)
(0.1377 0 -5.52892e-09)
(0.1377 0 -6.90206e-09)
(0.1377 0 -6.25672e-09)
(0.1377 0 -5.51578e-09)
(0.1377 0 -5.64783e-09)
(0.1377 0 -5.01438e-09)
(0.1377 0 -2.99608e-09)
(0.1377 0 -1.06804e-09)
(0.1377 0 4.66506e-10)
(0.1377 0 1.75751e-09)
(0.1377 0 3.83713e-09)
(0.1377 0 5.27617e-09)
(0.1377 0 5.51773e-09)
(0.1377 0 6.07553e-09)
(0.1377 0 6.69083e-09)
(0.1377 0 5.49144e-09)
(0.1377 0 5.08308e-09)
(0.1377 0 4.5929e-09)
(0.1377 0 2.77372e-09)
(0.1377 0 1.20278e-09)
(0.1377 0 -1.72375e-10)
(0.1377 0 -2.09311e-09)
(0.1377 0 -2.98683e-09)
(0.1377 0 -4.95094e-09)
(0.1377 0 -4.85733e-09)
(0.1377 0 -7.26103e-09)
(0.1377 0 -6.71073e-09)
(0.1377 0 -5.26653e-09)
(0.1377 0 -4.96768e-09)
(0.1377 0 -4.9627e-09)
(0.1377 0 -2.74056e-09)
(0.1377 0 -1.5926e-09)
(0.1377 0 -1.74454e-10)
(0.1377 0 1.54771e-09)
(0.1377 0 3.07233e-09)
(0.1377 0 5.23839e-09)
(0.148548 0 -1.74106e-11)
(0.148548 0 -5.27648e-11)
(0.148548 0 -7.17919e-11)
(0.148548 0 -1.02547e-10)
(0.148548 0 -1.29169e-10)
(0.148548 0 -1.24923e-10)
(0.148548 0 -1.18604e-10)
(0.148548 0 -1.14358e-10)
(0.148548 0 -1.01667e-10)
(0.148548 0 -7.87224e-11)
(0.148548 0 -5.22185e-11)
(0.148548 0 -2.14639e-11)
(0.148548 0 1.02079e-11)
(0.148548 0 3.9817e-11)
(0.148548 0 5.90556e-11)
(0.148548 0 1.03437e-10)
(0.148548 0 1.24228e-10)
(0.148548 0 1.26818e-10)
(0.148548 0 1.30071e-10)
(0.148548 0 1.1631e-10)
(0.148548 0 1.09688e-10)
(0.148548 0 9.36202e-11)
(0.148548 0 4.95374e-11)
(0.148548 0 2.90137e-11)
(0.148548 0 -3.01367e-12)
(0.148548 0 -3.34802e-11)
(0.148548 0 -7.16787e-11)
(0.148548 0 -7.2045e-11)
(0.148548 0 -1.10652e-10)
(0.148548 0 -1.2923e-10)
(0.148548 0 -1.58353e-10)
(0.148548 0 -1.36974e-10)
(0.148548 0 -8.66185e-11)
(0.148548 0 -8.53244e-11)
(0.148548 0 -5.64138e-11)
(0.148548 0 -3.83118e-11)
(0.148548 0 -3.626e-12)
(0.148548 0 3.09983e-11)
(0.148548 0 6.25905e-11)
(0.148548 0 9.80992e-11)
(0.00151843 0 -8.13951e-05)
(0.00154242 0 -0.000249779)
(0.00159231 0 -0.000434284)
(0.00155822 0 -0.000534979)
(0.00155378 0 -0.000620308)
(0.00155426 0 -0.000669561)
(0.0015804 0 -0.00070572)
(0.00147709 0 -0.000546754)
(0.00156599 0 -0.000564392)
(0.00163552 0 -0.000498014)
(0.00158735 0 -0.000305188)
(0.00160528 0 -0.00013368)
(0.00148583 0 4.49348e-05)
(0.00154423 0 0.000217558)
(0.00151659 0 0.000351829)
(0.00151694 0 0.0004742)
(0.00168241 0 0.000744449)
(0.00155545 0 0.000664476)
(0.00153278 0 0.000650866)
(0.0015363 0 0.000625353)
(0.00147686 0 0.000493441)
(0.00145521 0 0.000379873)
(0.00157347 0 0.000331263)
(0.00157313 0 0.000162995)
(0.00145847 0 -1.26739e-05)
(0.00155179 0 -0.000186429)
(0.00149383 0 -0.000309358)
(0.00160223 0 -0.000525174)
(0.00165184 0 -0.000691355)
(0.00146103 0 -0.000545448)
(0.00162109 0 -0.000758771)
(0.00160184 0 -0.000711937)
(0.00155164 0 -0.000588426)
(0.00142183 0 -0.000371861)
(0.00151449 0 -0.000326458)
(0.00145782 0 -0.000159193)
(0.0015161 0 -1.92458e-05)
(0.0015807 0 0.000159666)
(0.00160807 0 0.000345902)
(0.001595 0 0.00049118)
(0.00472527 0 -0.000255819)
(0.00469076 0 -0.000734839)
(0.00487141 0 -0.00130229)
(0.00454408 0 -0.00139022)
(0.00472809 0 -0.00182924)
(0.00503346 0 -0.00233877)
(0.00477751 0 -0.00204603)
(0.00480549 0 -0.00195701)
(0.00464588 0 -0.00154738)
(0.00452704 0 -0.00112457)
(0.00469227 0 -0.000830464)
(0.00469603 0 -0.000353889)
(0.00480098 0 0.000157556)
(0.00505076 0 0.000780675)
(0.00459279 0 0.00102022)
(0.00507646 0 0.00181406)
(0.00475264 0 0.00181081)
(0.0047793 0 0.00201443)
(0.00468301 0 0.00193978)
(0.00470188 0 0.00187344)
(0.00475708 0 0.00171742)
(0.00470815 0 0.00134398)
(0.00474229 0 0.000951731)
(0.00495583 0 0.000528833)
(0.00482539 0 -4.77337e-05)
(0.00454645 0 -0.000490855)
(0.00506335 0 -0.0012302)
(0.0045546 0 -0.00127485)
(0.00458543 0 -0.00158386)
(0.00484114 0 -0.00206148)
(0.00459322 0 -0.00183318)
(0.00479891 0 -0.00201618)
(0.00479902 0 -0.00181697)
(0.00465 0 -0.00136793)
(0.0045959 0 -0.000952426)
(0.00468481 0 -0.000551994)
(0.00470102 0 -5.98624e-05)
(0.00500216 0 0.000523968)
(0.00478809 0 0.000963519)
(0.0049138 0 0.00150102)
(0.00832181 0 -0.000459174)
(0.00801692 0 -0.00120801)
(0.00803004 0 -0.00193428)
(0.00832735 0 -0.00280981)
(0.00829811 0 -0.00325137)
(0.00832066 0 -0.00353357)
(0.00765514 0 -0.00275485)
(0.00817015 0 -0.00317699)
(0.00826633 0 -0.00286353)
(0.00816979 0 -0.0021771)
(0.00857714 0 -0.00165284)
(0.00771446 0 -0.000513547)
(0.00808961 0 0.000249065)
(0.00815813 0 0.00110469)
(0.00816893 0 0.00188855)
(0.00776639 0 0.0021776)
(0.00823932 0 0.0031076)
(0.0082325 0 0.00339465)
(0.00838513 0 0.00365036)
(0.00825011 0 0.00332831)
(0.00848946 0 0.00319597)
(0.00823577 0 0.00236662)
(0.00802781 0 0.00152225)
(0.00854791 0 0.000896233)
(0.00862417 0 -8.90364e-05)
(0.00864781 0 -0.00109789)
(0.00832802 0 -0.00183521)
(0.00865448 0 -0.00284142)
(0.00835717 0 -0.00314456)
(0.00867361 0 -0.00386872)
(0.00814871 0 -0.00336797)
(0.00874313 0 -0.00395842)
(0.00780453 0 -0.00257387)
(0.00864746 0 -0.00285728)
(0.00852794 0 -0.00198529)
(0.00817866 0 -0.000966499)
(0.00795014 0 -9.5316e-05)
(0.00912445 0 0.00102388)
(0.00807883 0 0.00152855)
(0.00814853 0 0.00227494)
(0.0120892 0 -0.000654531)
(0.012242 0 -0.00199027)
(0.0125882 0 -0.00342307)
(0.0130813 0 -0.004941)
(0.0123972 0 -0.0050145)
(0.012771 0 -0.00585606)
(0.0124559 0 -0.00551614)
(0.0127503 0 -0.00552473)
(0.012134 0 -0.00420443)
(0.0118946 0 -0.00312056)